                         Program Version 4.0.1 -  RELEASE  -
|  1> * xyz  0 1
|  2>   C   11.78282594829233     10.81649346386566      9.87180433161099
|  3>   C   10.45899449417260     11.19904222317435      9.52727451754626
|  4>   S   9.29339360574428     10.31048075143597     10.31744739220619
|  5>   C   10.45105888682616      9.41870283236093     11.11558724151590
|  6>   C   11.77813220207481      9.79775715595355     10.78064743051664
|  7>   H   12.65976618436687     11.28894997108439      9.45231813281897
|  8>   H   10.19045646721663     11.98158554391282      8.82831650205907
|  9>   H   10.17489818126792      8.63671660483904     11.81219735590970
| 10>   H   12.65077403003839      9.32267145337330     11.20610709581628
| 11> *
| 12>
| 13> %pal
| 14>  nprocs 4
| 15> end
| 16>
| 17>
| 18>
| 19> ! DFT  PBE0 RIJK cc-pVTZ
| 20>
| 21>
| 22>                          ****END OF INPUT****

CARTESIAN COORDINATES (ANGSTROEM)
---------------------------------
  C     11.782826   10.816493    9.871804
  C     10.458994   11.199042    9.527275
  S      9.293394   10.310481   10.317447
  C     10.451059    9.418703   11.115587
  C     11.778132    9.797757   10.780647
  H     12.659766   11.288950    9.452318
  H     10.190456   11.981586    8.828317
  H     10.174898    8.636717   11.812197
  H     12.650774    9.322671   11.206107

 Total Charge           Charge          ....    0
 Multiplicity           Mult            ....    1
 Number of Electrons    NEL             ....   44
 Basis Dimension        Dim             ....  210

ORBITAL ENERGIES
----------------

  NO   OCC          E(Eh)            E(eV)
   0   2.0000     -89.094209     -2424.3767
   1   2.0000     -10.250829      -278.9392
   2   2.0000     -10.250796      -278.9383
   3   2.0000     -10.230943      -278.3981
   4   2.0000     -10.230209      -278.3781
   5   2.0000      -7.973889      -216.9806
   6   2.0000      -5.891598      -160.3185
   7   2.0000      -5.887933      -160.2188
   8   2.0000      -5.876113      -159.8972
   9   2.0000      -0.915351       -24.9080
  10   2.0000      -0.770274       -20.9602
  11   2.0000      -0.733231       -19.9522
  12   2.0000      -0.576946       -15.6995
  13   2.0000      -0.571389       -15.5483
  14   2.0000      -0.533387       -14.5142
  15   2.0000      -0.410704       -11.1758
  16   2.0000      -0.408013       -11.1026
  17   2.0000      -0.402581       -10.9548
  18   2.0000      -0.400527       -10.8989
  19   2.0000      -0.367175        -9.9913
  20   2.0000      -0.272918        -7.4265
  21   2.0000      -0.239261        -6.5106
  22   0.0000      -0.016513        -0.4493
  23   0.0000       0.040761         1.1092
  24   0.0000       0.056366         1.5338
  25   0.0000       0.061036         1.6609
  26   0.0000       0.095822         2.6075

MULLIKEN ATOMIC CHARGES
-----------------------
   0 C :   -0.125461
   1 C :   -0.215286
   2 S :    0.147727
   3 C :   -0.214911
   4 C :   -0.125406
   5 H :    0.121144
   6 H :    0.145664
   7 H :    0.145497
   8 H :    0.121032
Sum of atomic charges:    0.0000000

LOEWDIN ATOMIC CHARGES
----------------------
   0 C :   -0.028656
   1 C :   -0.212492
   2 S :    0.658880
   3 C :   -0.212518
   4 C :   -0.028749
   5 H :   -0.031651
   6 H :   -0.056596
   7 H :   -0.056592
   8 H :   -0.031625

  Mayer bond orders larger than 0.1
B(  0-C ,  1-C ) :   1.4642 B(  0-C ,  4-C ) :   1.3292 B(  0-C ,  5-H ) :   0.9652
B(  1-C ,  2-S ) :   1.3020 B(  1-C ,  3-C ) :   0.1060 B(  1-C ,  6-H ) :   0.9560
B(  2-S ,  3-C ) :   1.3018 B(  3-C ,  4-C ) :   1.4645 B(  3-C ,  7-H ) :   0.9560
B(  4-C ,  8-H ) :   0.9653

FINAL SINGLE POINT ENERGY      -552.195686559993

DIPOLE MOMENT
-------------
                                X             Y             Z
Electronic contribution:     -3.60656       0.00517      -0.01228
Nuclear contribution   :      3.71810      -0.00544       0.01248
                        -----------------------------------------
Total Dipole Moment    :      0.11154      -0.00027       0.00020
                        -----------------------------------------
Magnitude (a.u.)       :      0.11154
Magnitude (Debye)      :      0.28351

                             ****ORCA TERMINATED NORMALLY****
TOTAL RUN TIME: 0 days 0 hours 0 minutes 6 seconds 836 msec
