                         Program Version 4.0.1 -  RELEASE  -
|  1> * xyz  0 1
|  2>   C   11.74900087301513     10.83466152787343      9.85570686810262
|  3>   C   10.48047716613088     11.21369140365122      9.51438834881580
|  4>   S   9.34064724310574     10.30916949725020     10.31790763388404
|  5>   C   10.47398596248998      9.40336030726578     11.12907407004676
|  6>   C   11.74529900769204      9.78042365234236     10.79607732244523
|  7>   H   12.64106060068348     11.29083790819463      9.45090881733661
|  8>   H   10.19420913092537     11.98899877875689      8.82181671349346
|  9>   H   10.18150178674088      8.62858482789267     11.81967233638997
| 10>   H   12.63411822921651      9.32267209677281     11.20614788948551
| 11> *
| 12>
| 13> %pal
| 14>  nprocs 4
| 15> end
| 16>
| 17>
| 18>
| 19> ! DFT  PBE0 RIJK cc-pVTZ
| 20>
| 21>
| 22>                          ****END OF INPUT****

CARTESIAN COORDINATES (ANGSTROEM)
---------------------------------
  C     11.749001   10.834662    9.855707
  C     10.480477   11.213691    9.514388
  S      9.340647   10.309169   10.317908
  C     10.473986    9.403360   11.129074
  C     11.745299    9.780424   10.796077
  H     12.641061   11.290838    9.450909
  H     10.194209   11.988999    8.821817
  H     10.181502    8.628585   11.819672
  H     12.634118    9.322672   11.206148

 Total Charge           Charge          ....    0
 Multiplicity           Mult            ....    1
 Number of Electrons    NEL             ....   44
 Basis Dimension        Dim             ....  210

ORBITAL ENERGIES
----------------

  NO   OCC          E(Eh)            E(eV)
   0   2.0000     -89.085839     -2424.1489
   1   2.0000     -10.247221      -278.8410
   2   2.0000     -10.247200      -278.8405
   3   2.0000     -10.228906      -278.3427
   4   2.0000     -10.228374      -278.3282
   5   2.0000      -7.966786      -216.7873
   6   2.0000      -5.884746      -160.1321
   7   2.0000      -5.880598      -160.0192
   8   2.0000      -5.868470      -159.6892
   9   2.0000      -0.921838       -25.0845
  10   2.0000      -0.760653       -20.6984
  11   2.0000      -0.749122       -20.3847
  12   2.0000      -0.578302       -15.7364
  13   2.0000      -0.574647       -15.6369
  14   2.0000      -0.534699       -14.5499
  15   2.0000      -0.425124       -11.5682
  16   2.0000      -0.406405       -11.0588
  17   2.0000      -0.404727       -11.0132
  18   2.0000      -0.403692       -10.9850
  19   2.0000      -0.355815        -9.6822
  20   2.0000      -0.264704        -7.2030
  21   2.0000      -0.252272        -6.8647
  22   0.0000      -0.006628        -0.1804
  23   0.0000       0.048434         1.3180
  24   0.0000       0.056860         1.5472
  25   0.0000       0.059941         1.6311
  26   0.0000       0.093907         2.5553

MULLIKEN ATOMIC CHARGES
-----------------------
   0 C :   -0.128189
   1 C :   -0.204117
   2 S :    0.126046
   3 C :   -0.203775
   4 C :   -0.128168
   5 H :    0.119680
   6 H :    0.149565
   7 H :    0.149370
   8 H :    0.119588
Sum of atomic charges:   -0.0000000

LOEWDIN ATOMIC CHARGES
----------------------
   0 C :   -0.029360
   1 C :   -0.213771
   2 S :    0.651279
   3 C :   -0.213790
   4 C :   -0.029314
   5 H :   -0.032160
   6 H :   -0.050357
   7 H :   -0.050367
   8 H :   -0.032160

  Mayer bond orders larger than 0.1
B(  0-C ,  1-C ) :   1.5278 B(  0-C ,  4-C ) :   1.2639 B(  0-C ,  5-H ) :   0.9639
B(  1-C ,  2-S ) :   1.2763 B(  1-C ,  6-H ) :   0.9536 B(  2-S ,  3-C ) :   1.2763
B(  3-C ,  4-C ) :   1.5280 B(  3-C ,  7-H ) :   0.9536 B(  4-C ,  8-H ) :   0.9640

FINAL SINGLE POINT ENERGY      -552.202700032865

DIPOLE MOMENT
-------------
                                X             Y             Z
Electronic contribution:     -3.47732       0.00235      -0.01120
Nuclear contribution   :      3.63917      -0.00258       0.01150
                        -----------------------------------------
Total Dipole Moment    :      0.16185      -0.00023       0.00030
                        -----------------------------------------
Magnitude (a.u.)       :      0.16185
Magnitude (Debye)      :      0.41140

                             ****ORCA TERMINATED NORMALLY****
TOTAL RUN TIME: 0 days 0 hours 0 minutes 7 seconds 65 msec
