                         Program Version 4.0.1 -  RELEASE  -
|  1> * xyz  1 2
|  2>   C      11.749001     10.834662      9.855707
|  3>   C      10.480477     11.213691      9.514388
|  4>   S       9.340647     10.309169     10.317908
|  5>   C      10.473986      9.403360     11.129074
|  6>   C      11.745299      9.780424     10.796077
|  7>   H      12.641061     11.290838      9.450909
|  8>   H      10.194209     11.988999      8.821817
|  9>   H      10.181502      8.628585     11.819672
| 10>   H      12.634118      9.322672     11.206148
| 11> *
| 12>
| 13> %pal
| 14>  nprocs 4
| 15> end
| 16>
| 17>
| 18>
| 19> ! OPT DFT  PBE0 RIJK cc-pVTZ
| 20>
| 21>
| 22>                          ****END OF INPUT****
 Total Charge           Charge          ....    1
 Multiplicity           Mult            ....    2
 Number of Electrons    NEL             ....   43
FINAL SINGLE POINT ENERGY      -551.861479211020
FINAL SINGLE POINT ENERGY      -551.865060876398
FINAL SINGLE POINT ENERGY      -551.865361974904
FINAL SINGLE POINT ENERGY      -551.865425093743
FINAL SINGLE POINT ENERGY      -551.865543296583
FINAL SINGLE POINT ENERGY      -551.865331719887
FINAL SINGLE POINT ENERGY      -551.865656301458
FINAL SINGLE POINT ENERGY      -551.865660629365
FINAL SINGLE POINT ENERGY      -551.865674362361
FINAL SINGLE POINT ENERGY      -551.865675543784
FINAL SINGLE POINT ENERGY      -551.866129029170
FINAL SINGLE POINT ENERGY      -551.869478865958
FINAL SINGLE POINT ENERGY      -551.876263734795
FINAL SINGLE POINT ENERGY      -551.880355614383
FINAL SINGLE POINT ENERGY      -551.881953300793
FINAL SINGLE POINT ENERGY      -551.882382432148
FINAL SINGLE POINT ENERGY      -551.882449026380
FINAL SINGLE POINT ENERGY      -551.882462639593
FINAL SINGLE POINT ENERGY      -551.882465058339
                    ***********************HURRAY********************

CARTESIAN COORDINATES (ANGSTROEM)
---------------------------------
  C     11.782826   10.816493    9.871804
  C     10.458994   11.199042    9.527275
  S      9.293394   10.310481   10.317447
  C     10.451059    9.418703   11.115587
  C     11.778132    9.797757   10.780647
  H     12.659766   11.288950    9.452318
  H     10.190456   11.981586    8.828317
  H     10.174898    8.636717   11.812197
  H     12.650774    9.322671   11.206107

 Multiplicity           Mult            ....    2
 Number of Electrons    NEL             ....   43
 Basis Dimension        Dim             ....  210

ORBITAL ENERGIES
----------------
                 SPIN UP ORBITALS
  NO   OCC          E(Eh)            E(eV)
   0   1.0000     -89.328635     -2430.7557
   1   1.0000     -10.526199      -286.4324
   2   1.0000     -10.526176      -286.4318
   3   1.0000     -10.473412      -284.9960
   4   1.0000     -10.472670      -284.9758
   5   1.0000      -8.208518      -223.3651
   6   1.0000      -6.126507      -166.7107
   7   1.0000      -6.122224      -166.5942
   8   1.0000      -6.109431      -166.2461
   9   1.0000      -1.170759       -31.8580
  10   1.0000      -1.008642       -27.4465
  11   1.0000      -0.995450       -27.0876
  12   1.0000      -0.822233       -22.3741
  13   1.0000      -0.811368       -22.0784
  14   1.0000      -0.765649       -20.8344
  15   1.0000      -0.658033       -17.9060
  16   1.0000      -0.656254       -17.8576
  17   1.0000      -0.644219       -17.5301
  18   1.0000      -0.635496       -17.2927
  19   1.0000      -0.595939       -16.2163
  20   1.0000      -0.515621       -14.0308
  21   1.0000      -0.502204       -13.6657
  22   0.0000      -0.267677        -7.2839
  23   0.0000      -0.180092        -4.9006
  24   0.0000      -0.176885        -4.8133
  25   0.0000      -0.117933        -3.2091
  26   0.0000      -0.098933        -2.6921

                 SPIN DOWN ORBITALS
  NO   OCC          E(Eh)            E(eV)
   0   1.0000     -89.329247     -2430.7724
   1   1.0000     -10.517824      -286.2045
   2   1.0000     -10.517811      -286.2042
   3   1.0000     -10.472783      -284.9789
   4   1.0000     -10.472027      -284.9583
   5   1.0000      -8.209148      -223.3823
   6   1.0000      -6.127185      -166.7292
   7   1.0000      -6.122823      -166.6105
   8   1.0000      -6.111283      -166.2965
   9   1.0000      -1.158518       -31.5249
  10   1.0000      -1.007089       -27.4043
  11   1.0000      -0.969702       -26.3869
  12   1.0000      -0.810951       -22.0671
  13   1.0000      -0.803852       -21.8739
  14   1.0000      -0.763499       -20.7759
  15   1.0000      -0.650221       -17.6934
  16   1.0000      -0.641851       -17.4657
  17   1.0000      -0.630942       -17.1688
  18   1.0000      -0.620667       -16.8892
  19   1.0000      -0.594820       -16.1859
  20   1.0000      -0.501340       -13.6421
  21   0.0000      -0.386498       -10.5172
  22   0.0000      -0.223819        -6.0904
  23   0.0000      -0.170945        -4.6517
  24   0.0000      -0.156269        -4.2523
  25   0.0000      -0.114898        -3.1265

MULLIKEN ATOMIC CHARGES AND SPIN POPULATIONS
--------------------------------------------
   0 C :   -0.052198    0.052568
   1 C :   -0.019644    0.512816
   2 S :    0.323102   -0.098352
   3 C :   -0.019367    0.512587
   4 C :   -0.052190    0.053153
   5 H :    0.193813   -0.002325
   6 H :    0.216434   -0.014044
   7 H :    0.216328   -0.014046
   8 H :    0.193721   -0.002357
Sum of atomic charges         :    1.0000000

LOEWDIN ATOMIC CHARGES AND SPIN POPULATIONS
-------------------------------------------
   0 C :    0.088315    0.086686
   1 C :   -0.003430    0.400514
   2 S :    0.821223   -0.020927
   3 C :   -0.003490    0.400376
   4 C :    0.088191    0.087032
   5 H :    0.009121    0.001785
   6 H :   -0.004544    0.021371
   7 H :   -0.004533    0.021363
   8 H :    0.009147    0.001799

  Mayer bond orders larger than 0.1
B(  0-C ,  1-C ) :   1.2222 B(  0-C ,  4-C ) :   1.5066 B(  0-C ,  5-H ) :   0.9390
B(  1-C ,  2-S ) :   1.2846 B(  1-C ,  3-C ) :   0.1087 B(  1-C ,  6-H ) :   0.9321
B(  2-S ,  3-C ) :   1.2848 B(  3-C ,  4-C ) :   1.2223 B(  3-C ,  7-H ) :   0.9321
B(  4-C ,  8-H ) :   0.9391

FINAL SINGLE POINT ENERGY      -551.882465398429

DIPOLE MOMENT
-------------
                                X             Y             Z
Electronic contribution:     -3.19399       0.00471      -0.01090
Nuclear contribution   :      3.71810      -0.00544       0.01248
                        -----------------------------------------
Total Dipole Moment    :      0.52411      -0.00074       0.00158
                        -----------------------------------------
Magnitude (a.u.)       :      0.52411
Magnitude (Debye)      :      1.33219

                             ****ORCA TERMINATED NORMALLY****
TOTAL RUN TIME: 0 days 0 hours 9 minutes 9 seconds 931 msec
