                         Program Version 4.0.1 -  RELEASE  -
|  1> * xyz  -1 2
|  2>   C   11.76426199334684     10.82280804908371      9.86349126054707
|  3>   C   10.46873492179135     11.23230879285747      9.48989890750860
|  4>   S   9.28239458366763     10.30942579668436     10.31782415470981
|  5>   C   10.46191892550494      9.38467502475006     11.15334170097282
|  6>   C   11.76045256336994      9.79216063367196     10.78815831931798
|  7>   H   12.66606336848248     11.27495060605222      9.46384041960820
|  8>   H   10.19501442746319     12.01707356566945      8.80256846612740
|  9>   H   10.18251878958796      8.60039130615951     11.83894147233342
| 10>   H   12.65894042678567      9.33860622507127     11.19363529887472
| 11> *
| 12>
| 13> %pal
| 14>  nprocs 4
| 15> end
| 16>
| 17>
| 18>
| 19> ! DFT  PBE0 RIJK cc-pVTZ
| 20>
| 21>
| 22>                          ****END OF INPUT****

CARTESIAN COORDINATES (ANGSTROEM)
---------------------------------
  C     11.764262   10.822808    9.863491
  C     10.468735   11.232309    9.489899
  S      9.282395   10.309426   10.317824
  C     10.461919    9.384675   11.153342
  C     11.760453    9.792161   10.788158
  H     12.666063   11.274951    9.463840
  H     10.195014   12.017074    8.802568
  H     10.182519    8.600391   11.838941
  H     12.658940    9.338606   11.193635

 Total Charge           Charge          ....   -1
 Multiplicity           Mult            ....    2
 Number of Electrons    NEL             ....   45
 Basis Dimension        Dim             ....  210

ORBITAL ENERGIES
----------------
                 SPIN UP ORBITALS
  NO   OCC          E(Eh)            E(eV)
   0   1.0000     -88.854457     -2417.8527
   1   1.0000     -10.010706      -272.4051
   2   1.0000     -10.010696      -272.4049
   3   1.0000     -10.009595      -272.3749
   4   1.0000     -10.008962      -272.3577
   5   1.0000      -7.731670      -210.3894
   6   1.0000      -5.650693      -153.7632
   7   1.0000      -5.647258      -153.6697
   8   1.0000      -5.635551      -153.3511
   9   1.0000      -0.675727       -18.3875
  10   1.0000      -0.537131       -14.6161
  11   1.0000      -0.515013       -14.0142
  12   1.0000      -0.364385        -9.9154
  13   1.0000      -0.350706        -9.5432
  14   1.0000      -0.314508        -8.5582
  15   1.0000      -0.199911        -5.4398
  16   1.0000      -0.190972        -5.1966
  17   1.0000      -0.180895        -4.9224
  18   1.0000      -0.179253        -4.8777
  19   1.0000      -0.137073        -3.7299
  20   1.0000      -0.060126        -1.6361
  21   1.0000      -0.039935        -1.0867
  22   1.0000       0.122969         3.3461
  23   0.0000       0.221678         6.0322
  24   0.0000       0.232394         6.3238
  25   0.0000       0.254503         6.9254
  26   0.0000       0.255364         6.9488
  27   0.0000       0.259974         7.0743

                 SPIN DOWN ORBITALS
  NO   OCC          E(Eh)            E(eV)
   0   1.0000     -88.853640     -2417.8305
   1   1.0000     -10.009361      -272.3686
   2   1.0000     -10.008734      -272.3515
   3   1.0000     -10.004239      -272.2292
   4   1.0000     -10.004226      -272.2288
   5   1.0000      -7.730829      -210.3666
   6   1.0000      -5.650510      -153.7582
   7   1.0000      -5.647051      -153.6641
   8   1.0000      -5.631596      -153.2435
   9   1.0000      -0.669204       -18.2100
  10   1.0000      -0.531694       -14.4681
  11   1.0000      -0.503881       -13.7113
  12   1.0000      -0.351552        -9.5662
  13   1.0000      -0.346921        -9.4402
  14   1.0000      -0.311440        -8.4747
  15   1.0000      -0.196779        -5.3546
  16   1.0000      -0.188533        -5.1302
  17   1.0000      -0.176475        -4.8021
  18   1.0000      -0.160843        -4.3768
  19   1.0000      -0.129772        -3.5313
  20   1.0000      -0.041070        -1.1176
  21   1.0000      -0.002807        -0.0764
  22   0.0000       0.218724         5.9518
  23   0.0000       0.222772         6.0619
  24   0.0000       0.236629         6.4390
  25   0.0000       0.255715         6.9584
  26   0.0000       0.257506         7.0071

MULLIKEN ATOMIC CHARGES AND SPIN POPULATIONS
--------------------------------------------
   0 C :   -0.174073    0.027534
   1 C :   -0.338656    0.404874
   2 S :   -0.155859    0.191943
   3 C :   -0.338457    0.404781
   4 C :   -0.173795    0.027452
   5 H :    0.029852   -0.005031
   6 H :    0.060720   -0.023268
   7 H :    0.060583   -0.023260
   8 H :    0.029685   -0.005024
Sum of atomic charges         :   -1.0000000

LOEWDIN ATOMIC CHARGES AND SPIN POPULATIONS
-------------------------------------------
   0 C :   -0.144826    0.067154
   1 C :   -0.337036    0.276273
   2 S :    0.350592    0.242866
   3 C :   -0.337037    0.276207
   4 C :   -0.144796    0.067106
   5 H :   -0.074208    0.003625
   6 H :   -0.119246    0.031580
   7 H :   -0.119244    0.031570
   8 H :   -0.074199    0.003619

  Mayer bond orders larger than 0.1
B(  0-C ,  1-C ) :   1.3066 B(  0-C ,  4-C ) :   1.4563 B(  0-C ,  5-H ) :   0.9806
B(  1-C ,  2-S ) :   1.1122 B(  1-C ,  6-H ) :   0.9879 B(  2-S ,  3-C ) :   1.1122
B(  3-C ,  4-C ) :   1.3068 B(  3-C ,  7-H ) :   0.9880 B(  4-C ,  8-H ) :   0.9807

FINAL SINGLE POINT ENERGY      -552.144002456496

DIPOLE MOMENT
-------------
                                X             Y             Z
Electronic contribution:     -3.78847       0.00292      -0.01224
Nuclear contribution   :      3.76615      -0.00291       0.01220
                        -----------------------------------------
Total Dipole Moment    :     -0.02232       0.00001      -0.00004
                        -----------------------------------------
Magnitude (a.u.)       :      0.02232
Magnitude (Debye)      :      0.05673

                             ****ORCA TERMINATED NORMALLY****
TOTAL RUN TIME: 0 days 0 hours 0 minutes 9 seconds 700 msec
