                         Program Version 4.0.1 -  RELEASE  -
|  1> * xyz  0 1
|  2>   C   11.76426199334684     10.82280804908371      9.86349126054707
|  3>   C   10.46873492179135     11.23230879285747      9.48989890750860
|  4>   S   9.28239458366763     10.30942579668436     10.31782415470981
|  5>   C   10.46191892550494      9.38467502475006     11.15334170097282
|  6>   C   11.76045256336994      9.79216063367196     10.78815831931798
|  7>   H   12.66606336848248     11.27495060605222      9.46384041960820
|  8>   H   10.19501442746319     12.01707356566945      8.80256846612740
|  9>   H   10.18251878958796      8.60039130615951     11.83894147233342
| 10>   H   12.65894042678567      9.33860622507127     11.19363529887472
| 11> *
| 12>
| 13> %pal
| 14>  nprocs 4
| 15> end
| 16>
| 17>
| 18>
| 19> ! DFT  PBE0 RIJK cc-pVTZ
| 20>
| 21>
| 22>                          ****END OF INPUT****

CARTESIAN COORDINATES (ANGSTROEM)
---------------------------------
  C     11.764262   10.822808    9.863491
  C     10.468735   11.232309    9.489899
  S      9.282395   10.309426   10.317824
  C     10.461919    9.384675   11.153342
  C     11.760453    9.792161   10.788158
  H     12.666063   11.274951    9.463840
  H     10.195014   12.017074    8.802568
  H     10.182519    8.600391   11.838941
  H     12.658940    9.338606   11.193635

 Total Charge           Charge          ....    0
 Multiplicity           Mult            ....    1
 Number of Electrons    NEL             ....   44
 Basis Dimension        Dim             ....  210

ORBITAL ENERGIES
----------------

  NO   OCC          E(Eh)            E(eV)
   0   2.0000     -89.094035     -2424.3719
   1   2.0000     -10.257933      -279.1326
   2   2.0000     -10.257913      -279.1320
   3   2.0000     -10.234164      -278.4858
   4   2.0000     -10.233524      -278.4684
   5   2.0000      -7.969970      -216.8739
   6   2.0000      -5.888721      -160.2402
   7   2.0000      -5.885132      -160.1426
   8   2.0000      -5.873346      -159.8219
   9   2.0000      -0.903394       -24.5826
  10   2.0000      -0.760607       -20.6972
  11   2.0000      -0.737592       -20.0709
  12   2.0000      -0.583155       -15.8685
  13   2.0000      -0.567792       -15.4504
  14   2.0000      -0.530423       -14.4335
  15   2.0000      -0.421235       -11.4624
  16   2.0000      -0.410222       -11.1627
  17   2.0000      -0.398197       -10.8355
  18   2.0000      -0.395691       -10.7673
  19   2.0000      -0.357184        -9.7195
  20   2.0000      -0.268767        -7.3135
  21   2.0000      -0.244006        -6.6397
  22   0.0000      -0.020446        -0.5564
  23   0.0000       0.037828         1.0293
  24   0.0000       0.056025         1.5245
  25   0.0000       0.060267         1.6399
  26   0.0000       0.091350         2.4858

MULLIKEN ATOMIC CHARGES
-----------------------
   0 C :   -0.123229
   1 C :   -0.202542
   2 S :    0.109396
   3 C :   -0.202384
   4 C :   -0.123022
   5 H :    0.120165
   6 H :    0.150853
   7 H :    0.150750
   8 H :    0.120013
Sum of atomic charges:    0.0000000

LOEWDIN ATOMIC CHARGES
----------------------
   0 C :   -0.035190
   1 C :   -0.178502
   2 S :    0.604109
   3 C :   -0.178519
   4 C :   -0.035186
   5 H :   -0.029961
   6 H :   -0.058396
   7 H :   -0.058397
   8 H :   -0.029957

  Mayer bond orders larger than 0.1
B(  0-C ,  1-C ) :   1.5008 B(  0-C ,  4-C ) :   1.2979 B(  0-C ,  5-H ) :   0.9647
B(  1-C ,  2-S ) :   1.2588 B(  1-C ,  3-C ) :   0.1099 B(  1-C ,  6-H ) :   0.9571
B(  2-S ,  3-C ) :   1.2587 B(  3-C ,  4-C ) :   1.5010 B(  3-C ,  7-H ) :   0.9572
B(  4-C ,  8-H ) :   0.9649

FINAL SINGLE POINT ENERGY      -552.195571315781

DIPOLE MOMENT
-------------
                                X             Y             Z
Electronic contribution:     -3.58498       0.00283      -0.01164
Nuclear contribution   :      3.76615      -0.00291       0.01220
                        -----------------------------------------
Total Dipole Moment    :      0.18117      -0.00008       0.00056
                        -----------------------------------------
Magnitude (a.u.)       :      0.18117
Magnitude (Debye)      :      0.46051

                             ****ORCA TERMINATED NORMALLY****
TOTAL RUN TIME: 0 days 0 hours 0 minutes 5 seconds 897 msec
