                         Program Version 4.0.1 -  RELEASE  -
|  1> * xyz  0 1
|  2> C +11.7012 +10.8655 +9.8691
|  3> C +10.4819 +11.2107 +9.5020
|  4> S +9.3809 +10.3398 +10.3200
|  5> C +10.4749 +9.5146 +11.2635
|  6> C +11.7070 +9.7701 +10.7683
|  7> H +12.5633 +11.5378 +9.5875
|  8> H +10.3051 +11.8641 +8.6589
|  9> H +10.2887 +8.6010 +11.8881
| 10> H +12.5373 +9.0688 +11.0543
| 11> *
| 12>
| 13> %pal
| 14>  nprocs 4
| 15> end
| 16>
| 17>
| 18>
| 19> ! OPT DFT  PBE0 RIJK cc-pVTZ
| 20>
| 21>
| 22>                          ****END OF INPUT****
 Total Charge           Charge          ....    0
 Multiplicity           Mult            ....    1
 Number of Electrons    NEL             ....   44
FINAL SINGLE POINT ENERGY      -552.175686769244
FINAL SINGLE POINT ENERGY      -552.192146394227
FINAL SINGLE POINT ENERGY      -552.198423120924
FINAL SINGLE POINT ENERGY      -552.201467806738
FINAL SINGLE POINT ENERGY      -552.202527133366
FINAL SINGLE POINT ENERGY      -552.202598513602
FINAL SINGLE POINT ENERGY      -552.202694705295
FINAL SINGLE POINT ENERGY      -552.202699217165
                    ***********************HURRAY********************

CARTESIAN COORDINATES (ANGSTROEM)
---------------------------------
  C     11.749001   10.834662    9.855707
  C     10.480477   11.213691    9.514388
  S      9.340647   10.309169   10.317908
  C     10.473986    9.403360   11.129074
  C     11.745299    9.780424   10.796077
  H     12.641061   11.290838    9.450909
  H     10.194209   11.988999    8.821817
  H     10.181502    8.628585   11.819672
  H     12.634118    9.322672   11.206148

 Multiplicity           Mult            ....    1
 Number of Electrons    NEL             ....   44
 Basis Dimension        Dim             ....  210

ORBITAL ENERGIES
----------------

  NO   OCC          E(Eh)            E(eV)
   0   2.0000     -89.085827     -2424.1486
   1   2.0000     -10.247221      -278.8411
   2   2.0000     -10.247201      -278.8405
   3   2.0000     -10.228901      -278.3425
   4   2.0000     -10.228368      -278.3280
   5   2.0000      -7.966776      -216.7870
   6   2.0000      -5.884736      -160.1318
   7   2.0000      -5.880589      -160.0189
   8   2.0000      -5.868460      -159.6889
   9   2.0000      -0.921834       -25.0844
  10   2.0000      -0.760649       -20.6983
  11   2.0000      -0.749121       -20.3846
  12   2.0000      -0.578301       -15.7364
  13   2.0000      -0.574646       -15.6369
  14   2.0000      -0.534698       -14.5499
  15   2.0000      -0.425123       -11.5682
  16   2.0000      -0.406401       -11.0587
  17   2.0000      -0.404725       -11.0131
  18   2.0000      -0.403690       -10.9850
  19   2.0000      -0.355811        -9.6821
  20   2.0000      -0.264700        -7.2029
  21   2.0000      -0.252270        -6.8646
  22   0.0000      -0.006626        -0.1803
  23   0.0000       0.048436         1.3180
  24   0.0000       0.056861         1.5473
  25   0.0000       0.059940         1.6311
  26   0.0000       0.093907         2.5553

MULLIKEN ATOMIC CHARGES
-----------------------
   0 C :   -0.128192
   1 C :   -0.204107
   2 S :    0.126027
   3 C :   -0.203768
   4 C :   -0.128170
   5 H :    0.119683
   6 H :    0.149566
   7 H :    0.149371
   8 H :    0.119591
Sum of atomic charges:   -0.0000000

LOEWDIN ATOMIC CHARGES
----------------------
   0 C :   -0.029363
   1 C :   -0.213766
   2 S :    0.651266
   3 C :   -0.213786
   4 C :   -0.029316
   5 H :   -0.032158
   6 H :   -0.050355
   7 H :   -0.050365
   8 H :   -0.032158

  Mayer bond orders larger than 0.1
B(  0-C ,  1-C ) :   1.5278 B(  0-C ,  4-C ) :   1.2639 B(  0-C ,  5-H ) :   0.9639
B(  1-C ,  2-S ) :   1.2763 B(  1-C ,  6-H ) :   0.9536 B(  2-S ,  3-C ) :   1.2763
B(  3-C ,  4-C ) :   1.5280 B(  3-C ,  7-H ) :   0.9536 B(  4-C ,  8-H ) :   0.9640

FINAL SINGLE POINT ENERGY      -552.202700043070

DIPOLE MOMENT
-------------
                                X             Y             Z
Electronic contribution:     -3.47727       0.00234      -0.01120
Nuclear contribution   :      3.63917      -0.00258       0.01150
                        -----------------------------------------
Total Dipole Moment    :      0.16189      -0.00023       0.00030
                        -----------------------------------------
Magnitude (a.u.)       :      0.16189
Magnitude (Debye)      :      0.41150

                             ****ORCA TERMINATED NORMALLY****
TOTAL RUN TIME: 0 days 0 hours 1 minutes 21 seconds 565 msec
