                         Program Version 4.0.1 -  RELEASE  -
|  1> * xyz  1 2
|  2>   C   11.78282594829233     10.81649346386566      9.87180433161099
|  3>   C   10.45899449417260     11.19904222317435      9.52727451754626
|  4>   S   9.29339360574428     10.31048075143597     10.31744739220619
|  5>   C   10.45105888682616      9.41870283236093     11.11558724151590
|  6>   C   11.77813220207481      9.79775715595355     10.78064743051664
|  7>   H   12.65976618436687     11.28894997108439      9.45231813281897
|  8>   H   10.19045646721663     11.98158554391282      8.82831650205907
|  9>   H   10.17489818126792      8.63671660483904     11.81219735590970
| 10>   H   12.65077403003839      9.32267145337330     11.20610709581628
| 11> *
| 12>
| 13> %pal
| 14>  nprocs 4
| 15> end
| 16>
| 17> %elprop
| 18> Polar 1
| 19> end
| 20>
| 21> ! DFT  PBE0 RIJK cc-pVTZ CHELPG
| 22>
| 23>
| 24>                          ****END OF INPUT****

CARTESIAN COORDINATES (ANGSTROEM)
---------------------------------
  C     11.782826   10.816493    9.871804
  C     10.458994   11.199042    9.527275
  S      9.293394   10.310481   10.317447
  C     10.451059    9.418703   11.115587
  C     11.778132    9.797757   10.780647
  H     12.659766   11.288950    9.452318
  H     10.190456   11.981586    8.828317
  H     10.174898    8.636717   11.812197
  H     12.650774    9.322671   11.206107

 Total Charge           Charge          ....    1
 Multiplicity           Mult            ....    2
 Number of Electrons    NEL             ....   43
 Basis Dimension        Dim             ....  210

ORBITAL ENERGIES
----------------
                 SPIN UP ORBITALS
  NO   OCC          E(Eh)            E(eV)
   0   1.0000     -89.328658     -2430.7564
   1   1.0000     -10.526208      -286.4327
   2   1.0000     -10.526187      -286.4321
   3   1.0000     -10.473420      -284.9963
   4   1.0000     -10.472680      -284.9761
   5   1.0000      -8.208536      -223.3656
   6   1.0000      -6.126525      -166.7112
   7   1.0000      -6.122240      -166.5946
   8   1.0000      -6.109461      -166.2469
   9   1.0000      -1.170767       -31.8582
  10   1.0000      -1.008657       -27.4469
  11   1.0000      -0.995445       -27.0874
  12   1.0000      -0.822240       -22.3743
  13   1.0000      -0.811368       -22.0785
  14   1.0000      -0.765656       -20.8346
  15   1.0000      -0.658036       -17.9061
  16   1.0000      -0.656260       -17.8577
  17   1.0000      -0.644225       -17.5303
  18   1.0000      -0.635501       -17.2929
  19   1.0000      -0.595951       -16.2166
  20   1.0000      -0.515595       -14.0301
  21   1.0000      -0.502239       -13.6666
  22   0.0000      -0.267687        -7.2841
  23   0.0000      -0.180077        -4.9002
  24   0.0000      -0.176889        -4.8134
  25   0.0000      -0.117936        -3.2092
  26   0.0000      -0.098950        -2.6926

                 SPIN DOWN ORBITALS
  NO   OCC          E(Eh)            E(eV)
   0   1.0000     -89.329258     -2430.7727
   1   1.0000     -10.517850      -286.2053
   2   1.0000     -10.517839      -286.2050
   3   1.0000     -10.472795      -284.9792
   4   1.0000     -10.472039      -284.9587
   5   1.0000      -8.209153      -223.3824
   6   1.0000      -6.127192      -166.7294
   7   1.0000      -6.122832      -166.6107
   8   1.0000      -6.111276      -166.2963
   9   1.0000      -1.158531       -31.5252
  10   1.0000      -1.007092       -27.4044
  11   1.0000      -0.969723       -26.3875
  12   1.0000      -0.810959       -22.0673
  13   1.0000      -0.803865       -21.8743
  14   1.0000      -0.763506       -20.7760
  15   1.0000      -0.650231       -17.6937
  16   1.0000      -0.641860       -17.4659
  17   1.0000      -0.630949       -17.1690
  18   1.0000      -0.620669       -16.8893
  19   1.0000      -0.594819       -16.1858
  20   1.0000      -0.501318       -13.6416
  21   0.0000      -0.386541       -10.5183
  22   0.0000      -0.223834        -6.0908
  23   0.0000      -0.170952        -4.6518
  24   0.0000      -0.156301        -4.2532
  25   0.0000      -0.114902        -3.1266

MULLIKEN ATOMIC CHARGES AND SPIN POPULATIONS
--------------------------------------------
   0 C :   -0.052130    0.052976
   1 C :   -0.019597    0.512235
   2 S :    0.323022   -0.097361
   3 C :   -0.019396    0.512202
   4 C :   -0.052232    0.052538
   5 H :    0.193830   -0.002330
   6 H :    0.216447   -0.013967
   7 H :    0.216339   -0.013974
   8 H :    0.193718   -0.002320
Sum of atomic charges         :    1.0000000

LOEWDIN ATOMIC CHARGES AND SPIN POPULATIONS
-------------------------------------------
   0 C :    0.088375    0.086864
   1 C :   -0.003378    0.400245
   2 S :    0.821149   -0.020207
   3 C :   -0.003514    0.400170
   4 C :    0.088154    0.086596
   5 H :    0.009131    0.001795
   6 H :   -0.004533    0.021380
   7 H :   -0.004528    0.021379
   8 H :    0.009146    0.001778

  Mayer bond orders larger than 0.1
B(  0-C ,  1-C ) :   1.2222 B(  0-C ,  4-C ) :   1.5065 B(  0-C ,  5-H ) :   0.9390
B(  1-C ,  2-S ) :   1.2848 B(  1-C ,  3-C ) :   0.1088 B(  1-C ,  6-H ) :   0.9320
B(  2-S ,  3-C ) :   1.2845 B(  3-C ,  4-C ) :   1.2225 B(  3-C ,  7-H ) :   0.9321
B(  4-C ,  8-H ) :   0.9391

FINAL SINGLE POINT ENERGY      -551.882465268246

DIPOLE MOMENT
-------------
                                X             Y             Z
Electronic contribution:     -3.19376       0.00498      -0.01114
Nuclear contribution   :      3.71810      -0.00544       0.01248
                        -----------------------------------------
Total Dipole Moment    :      0.52435      -0.00047       0.00134
                        -----------------------------------------
Magnitude (a.u.)       :      0.52435
Magnitude (Debye)      :      1.33278

                             ****ORCA TERMINATED NORMALLY****
TOTAL RUN TIME: 0 days 0 hours 2 minutes 16 seconds 620 msec
