                         Program Version 4.0.1 -  RELEASE  -
|  1> * xyz  -1 2
|  2>   C      11.749001     10.834662      9.855707
|  3>   C      10.480477     11.213691      9.514388
|  4>   S       9.340647     10.309169     10.317908
|  5>   C      10.473986      9.403360     11.129074
|  6>   C      11.745299      9.780424     10.796077
|  7>   H      12.641061     11.290838      9.450909
|  8>   H      10.194209     11.988999      8.821817
|  9>   H      10.181502      8.628585     11.819672
| 10>   H      12.634118      9.322672     11.206148
| 11> *
| 12>
| 13> %pal
| 14>  nprocs 4
| 15> end
| 16>
| 17>
| 18>
| 19> ! OPT DFT  PBE0 RIJK cc-pVTZ
| 20>
| 21>
| 22>                          ****END OF INPUT****
 Total Charge           Charge          ....   -1
 Multiplicity           Mult            ....    2
 Number of Electrons    NEL             ....   45
FINAL SINGLE POINT ENERGY      -552.137096160807
FINAL SINGLE POINT ENERGY      -552.142937577543
FINAL SINGLE POINT ENERGY      -552.143921857878
FINAL SINGLE POINT ENERGY      -552.143987405447
FINAL SINGLE POINT ENERGY      -552.143999411343
FINAL SINGLE POINT ENERGY      -552.144001535943
                    ***********************HURRAY********************

CARTESIAN COORDINATES (ANGSTROEM)
---------------------------------
  C     11.764262   10.822808    9.863491
  C     10.468735   11.232309    9.489899
  S      9.282395   10.309426   10.317824
  C     10.461919    9.384675   11.153342
  C     11.760453    9.792161   10.788158
  H     12.666063   11.274951    9.463840
  H     10.195014   12.017074    8.802568
  H     10.182519    8.600391   11.838941
  H     12.658940    9.338606   11.193635

 Multiplicity           Mult            ....    2
 Number of Electrons    NEL             ....   45
 Basis Dimension        Dim             ....  210

ORBITAL ENERGIES
----------------
                 SPIN UP ORBITALS
  NO   OCC          E(Eh)            E(eV)
   0   1.0000     -88.854439     -2417.8522
   1   1.0000     -10.010719      -272.4055
   2   1.0000     -10.010710      -272.4053
   3   1.0000     -10.009583      -272.3746
   4   1.0000     -10.008949      -272.3574
   5   1.0000      -7.731654      -210.3890
   6   1.0000      -5.650676      -153.7627
   7   1.0000      -5.647242      -153.6693
   8   1.0000      -5.635534      -153.3507
   9   1.0000      -0.675725       -18.3874
  10   1.0000      -0.537117       -14.6157
  11   1.0000      -0.515026       -14.0146
  12   1.0000      -0.364394        -9.9157
  13   1.0000      -0.350704        -9.5432
  14   1.0000      -0.314507        -8.5582
  15   1.0000      -0.199917        -5.4400
  16   1.0000      -0.190969        -5.1965
  17   1.0000      -0.180896        -4.9224
  18   1.0000      -0.179256        -4.8778
  19   1.0000      -0.137069        -3.7298
  20   1.0000      -0.060100        -1.6354
  21   1.0000      -0.039963        -1.0874
  22   1.0000       0.122944         3.3455
  23   0.0000       0.221678         6.0322
  24   0.0000       0.232391         6.3237
  25   0.0000       0.254502         6.9254
  26   0.0000       0.255361         6.9487
  27   0.0000       0.259998         7.0749

                 SPIN DOWN ORBITALS
  NO   OCC          E(Eh)            E(eV)
   0   1.0000     -88.853624     -2417.8300
   1   1.0000     -10.009361      -272.3686
   2   1.0000     -10.008734      -272.3515
   3   1.0000     -10.004232      -272.2290
   4   1.0000     -10.004219      -272.2286
   5   1.0000      -7.730817      -210.3662
   6   1.0000      -5.650499      -153.7579
   7   1.0000      -5.647039      -153.6638
   8   1.0000      -5.631583      -153.2432
   9   1.0000      -0.669200       -18.2099
  10   1.0000      -0.531699       -14.4683
  11   1.0000      -0.503876       -13.7112
  12   1.0000      -0.351549        -9.5661
  13   1.0000      -0.346923        -9.4402
  14   1.0000      -0.311440        -8.4747
  15   1.0000      -0.196781        -5.3547
  16   1.0000      -0.188535        -5.1303
  17   1.0000      -0.176472        -4.8020
  18   1.0000      -0.160842        -4.3767
  19   1.0000      -0.129770        -3.5312
  20   1.0000      -0.041089        -1.1181
  21   1.0000      -0.002790        -0.0759
  22   0.0000       0.218748         5.9524
  23   0.0000       0.222770         6.0619
  24   0.0000       0.236628         6.4390
  25   0.0000       0.255715         6.9584
  26   0.0000       0.257503         7.0070

MULLIKEN ATOMIC CHARGES AND SPIN POPULATIONS
--------------------------------------------
   0 C :   -0.174116    0.027141
   1 C :   -0.338572    0.405421
   2 S :   -0.155888    0.191670
   3 C :   -0.338371    0.405329
   4 C :   -0.173837    0.027059
   5 H :    0.029843   -0.004944
   6 H :    0.060702   -0.023373
   7 H :    0.060564   -0.023365
   8 H :    0.029675   -0.004938
Sum of atomic charges         :   -1.0000000

LOEWDIN ATOMIC CHARGES AND SPIN POPULATIONS
-------------------------------------------
   0 C :   -0.144844    0.066942
   1 C :   -0.337016    0.276550
   2 S :    0.350599    0.242748
   3 C :   -0.337016    0.276484
   4 C :   -0.144814    0.066893
   5 H :   -0.074213    0.003631
   6 H :   -0.119247    0.031569
   7 H :   -0.119245    0.031559
   8 H :   -0.074204    0.003625

  Mayer bond orders larger than 0.1
B(  0-C ,  1-C ) :   1.3066 B(  0-C ,  4-C ) :   1.4563 B(  0-C ,  5-H ) :   0.9806
B(  1-C ,  2-S ) :   1.1122 B(  1-C ,  6-H ) :   0.9879 B(  2-S ,  3-C ) :   1.1121
B(  3-C ,  4-C ) :   1.3068 B(  3-C ,  7-H ) :   0.9880 B(  4-C ,  8-H ) :   0.9807

FINAL SINGLE POINT ENERGY      -552.144002720687

DIPOLE MOMENT
-------------
                                X             Y             Z
Electronic contribution:     -3.78864       0.00292      -0.01223
Nuclear contribution   :      3.76615      -0.00291       0.01220
                        -----------------------------------------
Total Dipole Moment    :     -0.02249       0.00001      -0.00003
                        -----------------------------------------
Magnitude (a.u.)       :      0.02249
Magnitude (Debye)      :      0.05716

                             ****ORCA TERMINATED NORMALLY****
TOTAL RUN TIME: 0 days 0 hours 1 minutes 23 seconds 541 msec
