                         Program Version 4.0.1 -  RELEASE  -
|  1> * xyz  1 2
|  2>   C   11.74900087301513     10.83466152787343      9.85570686810262
|  3>   C   10.48047716613088     11.21369140365122      9.51438834881580
|  4>   S   9.34064724310574     10.30916949725020     10.31790763388404
|  5>   C   10.47398596248998      9.40336030726578     11.12907407004676
|  6>   C   11.74529900769204      9.78042365234236     10.79607732244523
|  7>   H   12.64106060068348     11.29083790819463      9.45090881733661
|  8>   H   10.19420913092537     11.98899877875689      8.82181671349346
|  9>   H   10.18150178674088      8.62858482789267     11.81967233638997
| 10>   H   12.63411822921651      9.32267209677281     11.20614788948551
| 11> *
| 12>
| 13> %pal
| 14>  nprocs 4
| 15> end
| 16>
| 17>
| 18>
| 19> ! DFT  PBE0 RIJK cc-pVTZ
| 20>
| 21>
| 22>                          ****END OF INPUT****

CARTESIAN COORDINATES (ANGSTROEM)
---------------------------------
  C     11.749001   10.834662    9.855707
  C     10.480477   11.213691    9.514388
  S      9.340647   10.309169   10.317908
  C     10.473986    9.403360   11.129074
  C     11.745299    9.780424   10.796077
  H     12.641061   11.290838    9.450909
  H     10.194209   11.988999    8.821817
  H     10.181502    8.628585   11.819672
  H     12.634118    9.322672   11.206148

 Total Charge           Charge          ....    1
 Multiplicity           Mult            ....    2
 Number of Electrons    NEL             ....   43
 Basis Dimension        Dim             ....  210

ORBITAL ENERGIES
----------------
                 SPIN UP ORBITALS
  NO   OCC          E(Eh)            E(eV)
   0   1.0000     -89.370655     -2431.8992
   1   1.0000     -10.490989      -285.4743
   2   1.0000     -10.490441      -285.4594
   3   1.0000     -10.475111      -285.0423
   4   1.0000     -10.475070      -285.0411
   5   1.0000      -8.247353      -224.4219
   6   1.0000      -6.163160      -167.7081
   7   1.0000      -6.158396      -167.5785
   8   1.0000      -6.156813      -167.5354
   9   1.0000      -1.177698       -32.0468
  10   1.0000      -1.023984       -27.8640
  11   1.0000      -0.984574       -26.7916
  12   1.0000      -0.813597       -22.1391
  13   1.0000      -0.812049       -22.0970
  14   1.0000      -0.769205       -20.9311
  15   1.0000      -0.663980       -18.0678
  16   1.0000      -0.649682       -17.6787
  17   1.0000      -0.642259       -17.4768
  18   1.0000      -0.638879       -17.3848
  19   1.0000      -0.602950       -16.4071
  20   1.0000      -0.540467       -14.7069
  21   1.0000      -0.484783       -13.1916
  22   0.0000      -0.242275        -6.5926
  23   0.0000      -0.189110        -5.1460
  24   0.0000      -0.174678        -4.7532
  25   0.0000      -0.114250        -3.1089
  26   0.0000      -0.108731        -2.9587

                 SPIN DOWN ORBITALS
  NO   OCC          E(Eh)            E(eV)
   0   1.0000     -89.367895     -2431.8241
   1   1.0000     -10.485302      -285.3196
   2   1.0000     -10.484802      -285.3060
   3   1.0000     -10.477339      -285.1029
   4   1.0000     -10.477298      -285.1018
   5   1.0000      -8.244424      -224.3422
   6   1.0000      -6.161555      -167.6644
   7   1.0000      -6.156954      -167.5392
   8   1.0000      -6.145103      -167.2168
   9   1.0000      -1.166267       -31.7357
  10   1.0000      -0.998818       -27.1792
  11   1.0000      -0.982807       -26.7435
  12   1.0000      -0.806515       -21.9464
  13   1.0000      -0.805053       -21.9066
  14   1.0000      -0.765360       -20.8265
  15   1.0000      -0.649277       -17.6677
  16   1.0000      -0.637102       -17.3364
  17   1.0000      -0.635900       -17.3037
  18   1.0000      -0.625986       -17.0339
  19   1.0000      -0.595098       -16.1934
  20   1.0000      -0.481013       -13.0890
  21   0.0000      -0.416956       -11.3460
  22   0.0000      -0.221192        -6.0190
  23   0.0000      -0.171873        -4.6769
  24   0.0000      -0.153177        -4.1682
  25   0.0000      -0.112805        -3.0696

MULLIKEN ATOMIC CHARGES AND SPIN POPULATIONS
--------------------------------------------
   0 C :    0.007466    0.365899
   1 C :   -0.161374   -0.139859
   2 S :    0.487301    0.562947
   3 C :   -0.161064   -0.139782
   4 C :    0.007304    0.365136
   5 H :    0.200451   -0.009063
   6 H :    0.209873    0.001885
   7 H :    0.209707    0.001889
   8 H :    0.200335   -0.009052
Sum of atomic charges         :    1.0000000

LOEWDIN ATOMIC CHARGES AND SPIN POPULATIONS
-------------------------------------------
   0 C :    0.135584    0.292271
   1 C :   -0.131912   -0.035452
   2 S :    0.994562    0.472306
   3 C :   -0.131928   -0.035429
   4 C :    0.135463    0.291770
   5 H :    0.014511    0.013513
   6 H :   -0.015377   -0.006233
   7 H :   -0.015388   -0.006229
   8 H :    0.014485    0.013482

  Mayer bond orders larger than 0.1
B(  0-C ,  1-C ) :   1.5129 B(  0-C ,  2-S ) :   0.1365 B(  0-C ,  4-C ) :   1.0824
B(  0-C ,  5-H ) :   0.9356 B(  1-C ,  2-S ) :   1.2436 B(  1-C ,  6-H ) :   0.9313
B(  2-S ,  3-C ) :   1.2429 B(  2-S ,  4-C ) :   0.1363 B(  3-C ,  4-C ) :   1.5137
B(  3-C ,  7-H ) :   0.9313 B(  4-C ,  8-H ) :   0.9356

FINAL SINGLE POINT ENERGY      -551.861479150080

DIPOLE MOMENT
-------------
                                X             Y             Z
Electronic contribution:     -3.13037       0.00237      -0.01018
Nuclear contribution   :      3.63917      -0.00258       0.01150
                        -----------------------------------------
Total Dipole Moment    :      0.50880      -0.00021       0.00131
                        -----------------------------------------
Magnitude (a.u.)       :      0.50880
Magnitude (Debye)      :      1.29326

                             ****ORCA TERMINATED NORMALLY****
TOTAL RUN TIME: 0 days 0 hours 0 minutes 8 seconds 368 msec
