                         Program Version 4.0.1 -  RELEASE  -
|  1> * xyz  -1 2
|  2>   C   11.74900087301513     10.83466152787343      9.85570686810262
|  3>   C   10.48047716613088     11.21369140365122      9.51438834881580
|  4>   S   9.34064724310574     10.30916949725020     10.31790763388404
|  5>   C   10.47398596248998      9.40336030726578     11.12907407004676
|  6>   C   11.74529900769204      9.78042365234236     10.79607732244523
|  7>   H   12.64106060068348     11.29083790819463      9.45090881733661
|  8>   H   10.19420913092537     11.98899877875689      8.82181671349346
|  9>   H   10.18150178674088      8.62858482789267     11.81967233638997
| 10>   H   12.63411822921651      9.32267209677281     11.20614788948551
| 11> *
| 12>
| 13> %pal
| 14>  nprocs 4
| 15> end
| 16>
| 17>
| 18>
| 19> ! DFT  PBE0 RIJK cc-pVTZ
| 20>
| 21>
| 22>                          ****END OF INPUT****

CARTESIAN COORDINATES (ANGSTROEM)
---------------------------------
  C     11.749001   10.834662    9.855707
  C     10.480477   11.213691    9.514388
  S      9.340647   10.309169   10.317908
  C     10.473986    9.403360   11.129074
  C     11.745299    9.780424   10.796077
  H     12.641061   11.290838    9.450909
  H     10.194209   11.988999    8.821817
  H     10.181502    8.628585   11.819672
  H     12.634118    9.322672   11.206148

 Total Charge           Charge          ....   -1
 Multiplicity           Mult            ....    2
 Number of Electrons    NEL             ....   45
 Basis Dimension        Dim             ....  210

ORBITAL ENERGIES
----------------
                 SPIN UP ORBITALS
  NO   OCC          E(Eh)            E(eV)
   0   1.0000     -88.846276     -2417.6301
   1   1.0000     -10.003962      -272.2217
   2   1.0000     -10.003428      -272.2071
   3   1.0000      -9.999771      -272.1076
   4   1.0000      -9.999768      -272.1075
   5   1.0000      -7.728132      -210.2932
   6   1.0000      -5.646382      -153.6459
   7   1.0000      -5.642361      -153.5365
   8   1.0000      -5.630349      -153.2096
   9   1.0000      -0.692841       -18.8532
  10   1.0000      -0.536141       -14.5891
  11   1.0000      -0.525419       -14.2974
  12   1.0000      -0.358837        -9.7644
  13   1.0000      -0.355691        -9.6788
  14   1.0000      -0.318180        -8.6581
  15   1.0000      -0.204186        -5.5562
  16   1.0000      -0.190005        -5.1703
  17   1.0000      -0.185040        -5.0352
  18   1.0000      -0.183635        -4.9969
  19   1.0000      -0.135354        -3.6832
  20   1.0000      -0.055308        -1.5050
  21   1.0000      -0.045812        -1.2466
  22   1.0000       0.137123         3.7313
  23   0.0000       0.222229         6.0472
  24   0.0000       0.238157         6.4806
  25   0.0000       0.256129         6.9696
  26   0.0000       0.257966         7.0196
  27   0.0000       0.261343         7.1115

                 SPIN DOWN ORBITALS
  NO   OCC          E(Eh)            E(eV)
   0   1.0000     -88.845477     -2417.6083
   1   1.0000     -10.003612      -272.2121
   2   1.0000     -10.003090      -272.1979
   3   1.0000      -9.993688      -271.9421
   4   1.0000      -9.993670      -271.9416
   5   1.0000      -7.727306      -210.2707
   6   1.0000      -5.646196      -153.6408
   7   1.0000      -5.642147      -153.5306
   8   1.0000      -5.626476      -153.1042
   9   1.0000      -0.686522       -18.6812
  10   1.0000      -0.530859       -14.4454
  11   1.0000      -0.514892       -14.0109
  12   1.0000      -0.352021        -9.5790
  13   1.0000      -0.346718        -9.4347
  14   1.0000      -0.314662        -8.5624
  15   1.0000      -0.201311        -5.4779
  16   1.0000      -0.181990        -4.9522
  17   1.0000      -0.180980        -4.9247
  18   1.0000      -0.170019        -4.6265
  19   1.0000      -0.127420        -3.4673
  20   1.0000      -0.035768        -0.9733
  21   1.0000      -0.011246        -0.3060
  22   0.0000       0.223475         6.0811
  23   0.0000       0.231641         6.3033
  24   0.0000       0.241559         6.5732
  25   0.0000       0.257676         7.0117
  26   0.0000       0.259846         7.0708

MULLIKEN ATOMIC CHARGES AND SPIN POPULATIONS
--------------------------------------------
   0 C :   -0.184562    0.042018
   1 C :   -0.333693    0.381392
   2 S :   -0.137167    0.212281
   3 C :   -0.333265    0.381413
   4 C :   -0.184583    0.042007
   5 H :    0.029408   -0.005763
   6 H :    0.057405   -0.023796
   7 H :    0.057146   -0.023791
   8 H :    0.029309   -0.005760
Sum of atomic charges         :   -1.0000000

LOEWDIN ATOMIC CHARGES AND SPIN POPULATIONS
-------------------------------------------
   0 C :   -0.144068    0.077780
   1 C :   -0.364270    0.256533
   2 S :    0.393434    0.259562
   3 C :   -0.364287    0.256559
   4 C :   -0.144030    0.077770
   5 H :   -0.076573    0.004642
   6 H :   -0.111810    0.031257
   7 H :   -0.111822    0.031254
   8 H :   -0.076573    0.004643

  Mayer bond orders larger than 0.1
B(  0-C ,  1-C ) :   1.3201 B(  0-C ,  4-C ) :   1.4290 B(  0-C ,  5-H ) :   0.9803
B(  1-C ,  2-S ) :   1.1332 B(  1-C ,  6-H ) :   0.9864 B(  2-S ,  3-C ) :   1.1331
B(  3-C ,  4-C ) :   1.3204 B(  3-C ,  7-H ) :   0.9864 B(  4-C ,  8-H ) :   0.9804

FINAL SINGLE POINT ENERGY      -552.137095895030

DIPOLE MOMENT
-------------
                                X             Y             Z
Electronic contribution:     -3.67553       0.00246      -0.01185
Nuclear contribution   :      3.63917      -0.00258       0.01150
                        -----------------------------------------
Total Dipole Moment    :     -0.03636      -0.00012      -0.00035
                        -----------------------------------------
Magnitude (a.u.)       :      0.03637
Magnitude (Debye)      :      0.09243

                             ****ORCA TERMINATED NORMALLY****
TOTAL RUN TIME: 0 days 0 hours 0 minutes 9 seconds 427 msec
